% Model:                Glucose transport.mph
% Version:              COMSOL 4.1.0.88
% Date:                 May 6 2016, 18:41
% Dimension:            1
% Nodes:                1707
% Expressions:          1
% Description:          Line graph
% x                       Height
0                         5.351762875173573
0.0779244676232338        5.352260700595672
0.1644252985715866        5.352080223861889
0.25237810611724854       5.352577129036912
0.34033089876174927       5.351149005795207
0.42828369140625          5.35125360170523
0.5162364840507507        5.352196588655869
0.6041892766952515        5.351057620932711
0.6921420693397522        5.350908282266914
0.7800948619842529        5.351888921412921
0.8680476546287537        5.350509883182762
0.9560004472732544        5.350073411316346
1.0439531803131104        5.351226364405126
1.1319060325622559        5.351102560441894
1.2198588848114014        5.349295141794884
1.3078117370605469        5.350734081104822
1.3957645893096924        5.350870004970344
1.483717441558838         5.349407792453987
1.5716702938079834        5.34954315067185
1.659623146057129         5.350547973882187
1.7475759983062744        5.349430959718425
1.83552885055542          5.3492838855326745
1.9234817028045654        5.350308437809442
2.011434555053711         5.349010802794685
2.0993874073028564        5.348596180456182
2.187340259552002         5.34977108228659
2.2752931118011475        5.3496935384393
2.363245964050293         5.34796835690379
2.4511988162994385        5.349440454864055
2.539151668548584         5.349559972132539
2.6271045207977295        5.348118675379717
2.715057373046875         5.348340551487223
2.8030102252960205        5.34937952056513
2.890963077545166         5.348253340470889
2.9789159297943115        5.348125871045552
3.066868782043457         5.349218413393754
3.1548216342926025        5.347941255023462
3.242774486541748         5.347535031428366
3.3307273387908936        5.3487108987625716
3.418680191040039         5.348684725554615
3.5066330432891846        5.3470033744168655
3.59458589553833          5.348450821202763
3.6825387477874756        5.348558796225297
3.770491600036621         5.3471631608980585
3.8584444522857666        5.347428696573493
3.946397304534912         5.34845233139811
4.0343499183654785        5.34731125207412
4.122302532196045         5.347222247727401
4.210255146026611         5.348353613832612
4.298207759857178         5.3470216855925425
4.386160373687744         5.346628400115272
4.4741129875183105        5.347834925162616
4.562065601348877         5.347861872102963
4.650018215179443         5.346165612371686
4.73797082901001          5.347596573389441
4.825923442840576         5.347723411059109
4.913876056671143         5.346373768607369
5.001828670501709         5.3466436584351555
5.089781284332275         5.34764102075536
5.177733898162842         5.346510619557586
5.265686511993408         5.346470523500694
5.353639125823975         5.34760940426627
5.441591739654541         5.346259000227674
5.529544353485107         5.3458683167584
5.617496967315674         5.347115791145212
5.70544958114624          5.347155942787846
5.793402194976807         5.345441026847333
5.881354808807373         5.346851151343925
5.9693074226379395        5.347014992530144
6.057260036468506         5.345690759035148
6.145212650299072         5.345942250789877
6.233165264129639         5.346925188651032
6.321117877960205         5.345840770435869
6.4090704917907715        5.345839922817444
6.497023105621338         5.346959162187662
6.584975719451904         5.345523791084773
6.672928333282471         5.345211796017773
6.760880947113037         5.346502419389282
6.8488335609436035        5.346518225843941
6.93678617477417          5.344822599736658
7.024738788604736         5.346233474088864
7.112691402435303         5.346432558651202
7.200644016265869         5.345086672719658
7.2885966300964355        5.345314068666926
7.376549243927002         5.346313361647647
7.464501857757568         5.345269545398004
7.552454471588135         5.34526090019534
7.640407085418701         5.346346023452285
7.728359699249268         5.345025265179079
7.816312313079834         5.344510693991019
7.9042649269104           5.345971163186002
7.992217540740967         5.3459311669636
8.080170631408691         5.344230735359163
8.168123245239258         5.345693488935142
8.256075859069824         5.345881270763523
8.34402847290039          5.344480554084264
8.431981086730957         5.344718500103379
8.519933700561523         5.345746331362903
8.60788631439209          5.344728140862905
8.695838928222656         5.344678339809677
8.783791542053223         5.3457387591792
8.871744155883789         5.344470547858971
8.959696769714355         5.344045107077531
9.047649383544922         5.345379370502746
9.135601997375488         5.345336178251227
9.223554611206055         5.343689853098656
9.311507225036621         5.345162701757386
9.399459838867188         5.345347555072186
9.487412452697754         5.3439459760258945
9.57536506652832          5.344217620012992
9.663317680358887         5.345255427887837
9.751270294189453         5.344210275573482
9.83922290802002          5.344130236222728
9.927175521850586         5.3452276330491175
10.015128135681152        5.343966066512659
10.103080749511719        5.343543039960368
10.191033363342285        5.344875377097356
10.278985977172852        5.344846700840803
10.366938591003418        5.343246533527404
10.454891204833984        5.344683992613306
10.54284381866455         5.344820752126034
10.630796432495117        5.34344438907469
10.718749046325684        5.343745390828387
10.80670166015625         5.3447667618529495
10.894654273986816        5.343727758730149
10.982606887817383        5.343657641577184
11.07055950164795         5.344803989735969
11.158512115478516        5.343449604585187
11.246464729309082        5.34302293665247
11.334417343139648        5.3443694242187565
11.422369956970215        5.34437954290539
11.510322570800781        5.342785570021412
11.598275184631348        5.344210035842571
11.686227798461914        5.344339616224997
11.77418041229248         5.342990507297447
11.862133026123047        5.343306309420655
11.950085639953613        5.344269308622622
12.03803825378418         5.343200909144265
12.125990867614746        5.343164743957634
12.213943481445312        5.34429388114309
12.301896095275879        5.343064424028181
12.389848709106445        5.342670814705662
12.477801322937012        5.343880367750386
12.565753936767578        5.343932102739204
12.653706550598145        5.342308346027806
12.741659164428711        5.343692975920511
12.829611778259277        5.343855670683283
12.917564392089844        5.342533232505695
13.00551700592041         5.342858330760909
13.093469619750977        5.34382018526994
13.181422233581543        5.342767291423455
13.26937484741211         5.342781296937122
13.357327461242676        5.343892884205849
13.445280075073242        5.34260168432757
13.533232688903809        5.342044062130684
13.621185302734375        5.343490862521573
13.709137916564941        5.343528418325134
13.797090530395508        5.341895761918404
13.885043144226074        5.3432772465323195
13.97299575805664         5.343472525935701
14.060948371887207        5.3421419650059905
14.148900985717773        5.342407366073452
14.23685359954834         5.343353933691014
14.324806213378906        5.3423353360495
14.412758827209473        5.342351135645772
14.500711441040039        5.343444418516301
14.588664054870605        5.342157872683384
14.676616668701172        5.341813961407258
14.764569282531738        5.343075741264834
14.852521896362305        5.343074394789202
14.940474510192871        5.341429777273688
15.028427124023438        5.342853524900017
15.116379737854004        5.343074088528564
15.20433235168457         5.341734582014668
15.292284965515137        5.342006175405996
15.380237579345703        5.342970859446721
15.46819019317627         5.341986414701839
15.556142807006836        5.3419642092760045
15.644095420837402        5.342999963436155
15.732048034667969        5.341755078462651
15.820000648498535        5.3414743732255365
15.907953262329102        5.342808967283424
15.995905876159668        5.342609169592971
16.083858489990234        5.341031279365855
16.171812057495117        5.342518201578944
16.259765625              5.342709437625136
16.347719192504883        5.341309677255437
16.435672760009766        5.341586663351403
16.52362632751465         5.342601633170612
16.61157989501953         5.341608726236566
16.699533462524414        5.341585060176559
16.787487030029297        5.342632277906518
16.87544059753418         5.341417250795299
16.963394165039062        5.341135699089405
17.051347732543945        5.342417100124238
17.139301300048828        5.34219567120829
17.22725486755371         5.340695533361954
17.315208435058594        5.3421705055990945
17.403162002563477        5.342348477960315
17.49111557006836         5.340953138084128
17.579069137573242        5.34126088630611
17.667022705078125        5.342281389244627
17.754976272583008        5.341243204293715
17.84292984008789         5.3411831212377034
17.930883407592773        5.342267832069901
18.018836975097656        5.341074456966381
18.10679054260254         5.340778454755658
18.194744110107422        5.342060827410969
18.282697677612305        5.341859953164264
18.370651245117188        5.3403845924683555
18.45860481262207         5.341826325207806
18.546558380126953        5.341955907923646
18.634511947631836        5.340586257272581
18.72246551513672         5.340937759672514
18.8104190826416          5.34194533065004
18.898372650146484        5.34090200607541
18.986326217651367        5.340856244488772
19.07427978515625         5.341973210694284
19.162233352661133        5.340764680783448
19.250186920166016        5.340421267884099
19.3381404876709          5.341701572936301
19.42609405517578         5.341547546023944
19.514047622680664        5.340063751521772
19.602001190185547        5.341495340786137
19.68995475769043         5.341626530469967
19.777908325195312        5.340286114760774
19.865861892700195        5.340634335601324
19.953815460205078        5.341594244325487
20.04176902770996         5.340521123805323
20.129722595214844        5.340530949233582
20.217676162719727        5.341658447552103
20.30562973022461         5.340438399985412
20.393583297729492        5.3400985103837915
20.481536865234375        5.34140135720236
20.569490432739258        5.341260349404375
20.65744400024414         5.339741948621819
20.745397567749023        5.34112854033193
20.833351135253906        5.341286692262485
20.92130470275879         5.3399701766775625
21.009258270263672        5.340263964083632
21.097211837768555        5.341370185068162
21.185165405273438        5.340208415678186
21.27311897277832         5.340252636541113
21.361072540283203        5.34135647330613
21.449026107788086        5.340109282968825
21.53697967529297         5.33970417439448
21.62493324279785         5.34113206120881
21.712886810302734        5.340980901415787
21.800840377807617        5.339367864072894
21.8887939453125          5.340853998726702
21.976747512817383        5.341034903733078
22.064701080322266        5.3396768934945955
22.15265464782715         5.339961651354525
22.24060821533203         5.341027698164588
22.328561782836914        5.339917036983208
22.416515350341797        5.339956247188554
22.50446891784668         5.341042773659562
22.592422485351562        5.339800959332687
22.680376052856445        5.3394115265360025
22.768329620361328        5.34084621384371
22.85628318786621         5.340653442597945
22.944236755371094        5.339125621923278
23.032190322875977        5.340664102889006
23.12014389038086         5.3406618213299435
23.208097457885742        5.339347678237725
23.296051025390625        5.339636962214099
23.384004592895508        5.340739973425151
23.47195816040039         5.339651090775648
23.559911727905273        5.339661865750731
23.647865295410156        5.340704290890612
23.73581886291504         5.339456675310537
23.823772430419922        5.339154700978072
23.911725997924805        5.340547595447568
23.999679565429688        5.340324485810198
24.08763313293457         5.338823465798339
24.175586700439453        5.340390859227331
24.263540267944336        5.340363747610091
24.35149383544922         5.339016446356095
24.4394474029541          5.339326543205118
24.527400970458984        5.340464868297088
24.615354537963867        5.339354279839576
24.70330810546875         5.339336114038783
24.791261672973633        5.340393497367748
24.879215240478516        5.339185596696332
24.9671688079834          5.338864880724965
25.05512237548828         5.340235224454524
25.143075942993164        5.340019029213633
25.231029510498047        5.338556714383931
25.31898307800293         5.340121270693314
25.406936645507812        5.340028140450608
25.494890213012695        5.3383674125150185
25.582843780517578        5.339864688242078
25.67079734802246         5.340115278833745
25.758750915527344        5.338723713960127
25.846704483032227        5.338973914128022
25.93465805053711         5.340040368377244
26.022611618041992        5.339028418249994
26.110565185546875        5.338970327250737
26.198518753051758        5.340063962415926
26.28647232055664         5.338841217842997
26.374425888061523        5.338496236838155
26.462379455566406        5.33977067393206
26.55033302307129         5.339762842182851
26.638286590576172        5.338063290864831
26.726240158081055        5.33960865343078
26.814193725585938        5.339834130017018
26.90214729309082         5.338443201378982
26.990100860595703        5.338677652571234
27.078054428100586        5.339784570086006
27.16600799560547         5.33874470428512
27.25396156311035         5.338655395523498
27.341915130615234        5.339785025948826
27.429868698120117        5.33859624927813
27.517822265625           5.338235121017407
27.605775833129883        5.33947753426569
27.693729400634766        5.339475651793418
27.78168296813965         5.337813447949245
27.86963653564453         5.339353382965356
27.957590103149414        5.339544535307545
28.045543670654297        5.3381549159704855
28.13349723815918         5.338433685994929
28.221450805664062        5.339543674013329
28.309404373168945        5.338476954417466
28.397357940673828        5.338397625418471
28.48531150817871         5.339569563480706
28.573265075683594        5.338369513351956
28.661218643188477        5.337958919984852
28.74917221069336         5.339195737843309
28.837125778198242        5.339240844535135
28.925079345703125        5.337596463770636
29.013032913208008        5.339097578488862
29.10098648071289         5.3392644517853185
29.188940048217773        5.337929580070536
29.276893615722656        5.338225882340341
29.36484718322754         5.339273560405333
29.452800750732422        5.338178628692621
29.540754318237305        5.338141478334058
29.628707885742188        5.339316499038261
29.71666145324707         5.33810817466369
29.804615020751953        5.337693889356835
29.892568588256836        5.3389510478316735
29.98052215576172         5.33902337758897
30.0684757232666          5.33733722201972
30.156429290771484        5.338800997219412
30.244382858276367        5.339000658494789
30.33233642578125         5.33768836560806
30.420289993286133        5.337986594460715
30.508243560791016        5.339026130640744
30.5961971282959          5.337942823061303
30.68415069580078         5.337952071325714
30.772104263305664        5.339097905942906
30.860057830810547        5.337841577073026
30.94801139831543         5.337442026030591
31.035964965820312        5.338728132541808
31.123918533325195        5.338797607235084
31.211872100830078        5.33710646361947
31.29982566833496         5.338565684518518
31.387779235839844        5.3387869408304205
31.475732803344727        5.337476073326854
31.56368637084961         5.337715569627777
31.651639938354492        5.3387436171523435
31.739593505859375        5.337697103012437
31.827547073364258        5.33770577677557
31.91550064086914         5.338837008585501
32.00345230102539         5.337575890735696
32.09140396118164         5.3371960870137505
32.17935562133789         5.338507024575211
32.26730728149414         5.33852627584192
32.35525894165039         5.3368084792820465
32.44321060180664         5.338307302820542
32.53116226196289         5.338543218534496
32.61911392211914         5.337225464357126
32.70706558227539         5.337463815483826
32.79501724243164         5.338508394940693
32.88296890258789         5.33750009060364
32.97092056274414         5.337478508307749
33.05887222290039         5.338573651553981
33.14682388305664         5.337254817834268
33.23477554321289         5.336966706464262
33.32272720336914         5.33827127271032
33.41067886352539         5.338279342264402
33.49863052368164         5.336559873899805
33.58658218383789         5.338092442819871
33.67453384399414         5.3383134721443
33.76248550415039         5.336941704708227
33.85043716430664         5.337192895477214
33.93838882446289         5.338268511968363
34.02634048461914         5.337258578787953
34.11429214477539         5.337228983505182
34.20224380493164         5.338318387753505
34.29019546508789         5.337027234517098
34.37814712524414         5.336742842663714
34.46609878540039         5.3379921648326105
34.55405044555664         5.337990204651329
34.64200210571289         5.33631819093324
34.72995376586914         5.337854022303287
34.81790542602539         5.338064090639666
34.90585708618164         5.336683713989713
34.99380874633789         5.336960338644296
35.08176040649414         5.33805990207138
35.16971206665039         5.3370025471698055
35.25766372680664         5.33694499697711
35.34561538696289         5.338080943500828
35.43356704711914         5.336717770095174
35.52151870727539         5.3365163971273795
35.60947036743164         5.337768394493549
35.69742202758789         5.337768463630307
35.78537368774414         5.336174889413314
35.87332534790039         5.337642115372863
35.96127700805664         5.337794537633506
36.04922866821289         5.336440336338446
36.13718032836914         5.336762472115222
36.22513198852539         5.337841285253456
36.31308364868164         5.336769600769643
36.40103530883789         5.3367140156886785
36.48898696899414         5.337880014555471
36.57693862915039         5.336645795324393
36.66489028930664         5.33610206066637
36.75284194946289         5.337520932949476
36.84079360961914         5.337554699315882
36.92874526977539         5.3359479641692475
37.01669692993164         5.337395723197518
37.10464859008789         5.337550670174994
37.19260025024414         5.336226834631551
37.28055191040039         5.336546623614304
37.36850357055664         5.337566293989421
37.45645523071289         5.336483942226512
37.54440689086914         5.336484626028224
37.63235855102539         5.337661774553947
37.72031021118164         5.336406472482399
37.80826187133789         5.335863353961188
37.89621353149414         5.337309937566179
37.98416519165039         5.337356388582698
38.07211685180664         5.335719691973262
38.16006851196289         5.33712120655251
38.24802017211914         5.337308017384707
38.33597183227539         5.336009812188921
38.42392349243164         5.336319494736668
38.51187515258789         5.337311105594266
38.59982681274414         5.336257233467889
38.68777847290039         5.336282060358161
38.77573013305664         5.337421097345764
38.86368179321289         5.336109086250028
38.95163345336914         5.335657555620981
39.03958511352539         5.337071622643247
39.12753677368164         5.337111569730519
39.21548843383789         5.33547343877132
39.30344009399414         5.336882713547992
39.39139175415039         5.337095975406482
39.47934341430664         5.3357792904830506
39.56729507446289         5.336044798018058
39.65524673461914         5.337012650601079
39.74319839477539         5.336034254736017
39.83115005493164         5.336058066576073
39.91910171508789         5.337189978501491
40.00705337524414         5.335859191867691
40.09500503540039         5.335345058496659
40.18295669555664         5.336873881991193
40.27090835571289         5.336855884546329
40.35886001586914         5.335179395007279
40.44681167602539         5.336627774319018
40.53476333618164         5.336858790622746
40.62271499633789         5.335526808576179
40.71066665649414         5.335789453407741
40.79861831665039         5.336769651621534
40.88656997680664         5.335801784593445
40.97452163696289         5.335779751732478
41.06247329711914         5.336833345912624
41.15042495727539         5.335593850059452
41.23837661743164         5.335294388702165
41.32632827758789         5.336559293846114
41.41427993774414         5.336565807177061
41.50223159790039         5.3349247698961655
41.59018325805664         5.3364089847542315
41.67813491821289         5.3366191528358735
41.76608657836914         5.335236533060989
41.85403823852539         5.335515344171345
41.94198989868164         5.336549013468471
42.02994155883789         5.335570364373786
42.11789321899414         5.33554636672583
42.20584487915039         5.33660982089163
42.29379653930664         5.335388630287889
42.38174819946289         5.334972908746185
42.46969985961914         5.336311640368273
42.55765151977539         5.3362951291299945
42.64560317993164         5.334709822117765
42.73355484008789         5.336191537903417
42.82150650024414         5.336387079956658
42.90945816040039         5.33500421790006
42.99740982055664         5.335310277454949
43.08536148071289         5.336347785484306
43.17331314086914         5.335325975649981
43.26126480102539         5.335269344458979
43.34921646118164         5.33637851650064
43.43716812133789         5.335192907125074
43.52511978149414         5.3348531127624845
43.61307144165039         5.3360383224822625
43.70102310180664         5.336062590758137
43.78897476196289         5.3345234660724765
43.87692642211914         5.335952775558836
43.96487808227539         5.33609816672915
44.05282974243164         5.334743942346324
44.14078140258789         5.335095829300876
44.22873306274414         5.336101197303967
44.31668472290039         5.3350420421157585
44.40463638305664         5.335007286790174
44.49258804321289         5.336138132023451
44.58053970336914         5.334921012373596
44.66849136352539         5.334552329994825
44.75644302368164         5.335757773634991
44.84439468383789         5.335815654651137
44.93234634399414         5.334252529949327
45.02029800415039         5.335655356086029
45.10824966430664         5.335809594799963
45.19620132446289         5.3344926924240825
45.28415298461914         5.3348453074314826
45.37210464477539         5.335817374627812
45.46005630493164         5.334762039843713
45.54800796508789         5.334772351153217
45.63595962524414         5.335906402244194
45.72391128540039         5.334662473122578
45.81186294555664         5.334317034856101
45.89981460571289         5.335646361323536
45.98776626586914         5.335520822386658
46.07571792602539         5.3339920301677255
46.16366958618164         5.335403044319355
46.25162124633789         5.335585472711443
46.33957290649414         5.334286131663832
46.42752456665039         5.334604427282398
46.51547622680664         5.335550431260661
46.60342788696289         5.334526703530616
46.69137954711914         5.334568080310715
46.77933120727539         5.335675674606706
46.86728286743164         5.334410636099302
46.95523452758789         5.334086982889117
47.04318618774414         5.335448236637867
47.13113784790039         5.335292435530738
47.21908950805664         5.3337432091386665
47.30704116821289         5.3351600355461
47.39499282836914         5.335370181280286
47.48294448852539         5.334043767647121
47.57089614868164         5.334334552068823
47.65884780883789         5.3352925561860705
47.74679946899414         5.3343048305987955
47.83475112915039         5.334334134989812
47.92270278930664         5.335402382774045
48.01065444946289         5.334137668925836
48.09860610961914         5.3338572372376305
48.18655776977539         5.335215599632572
48.27450942993164         5.335022461301208
48.36246109008789         5.333468514573113
48.45041275024414         5.33492160076343
48.53836441040039         5.335137889679127
48.62631607055664         5.333781051202265
48.71426773071289         5.334055122427126
48.80221939086914         5.335047368511434
48.89017105102539         5.334073365696793
48.97812271118164         5.334077038951473
49.06607437133789         5.335121160076889
49.15402603149414         5.333891120191949
49.24197769165039         5.333632701900304
49.32992935180664         5.334956176922695
49.41788101196289         5.334739610160902
49.50583267211914         5.333240821328328
49.59378433227539         5.334725908678914
49.68173599243164         5.334884854323766
49.76968765258789         5.3334875456103115
49.85763931274414         5.333814393606724
49.94559097290039         5.334865931799216
50.03354263305664         5.333845059914962
50.12149429321289         5.333816258512553
50.20944595336914         5.334893680352297
50.29739761352539         5.333739393428866
50.38534927368164         5.333361734520297
50.47330093383789         5.334709983425891
50.56125259399414         5.3345189611027415
50.64920425415039         5.333040282576747
50.73715591430664         5.334528610872197
50.82510757446289         5.334662915683701
50.91305923461914         5.333249506212914
51.00101089477539         5.333608185197943
51.08896255493164         5.334734673108885
51.17691421508789         5.3335685674490705
51.26486587524414         5.333550312335126
51.35281753540039         5.3346607436032105
51.44076919555664         5.333508545968291
51.52872085571289         5.333118200867832
51.61667251586914         5.334470128120959
51.70462417602539         5.3343144726398
51.79257583618164         5.332859221071058
51.88052749633789         5.334364016724479
51.96847915649414         5.334287499890483
52.05643081665039         5.332986012812599
52.14438247680664         5.3333676339249605
52.23233413696289         5.334484153871871
52.32028579711914         5.333312368028237
52.40823745727539         5.333324524640632
52.49618911743164         5.334457344720689
52.58414077758789         5.333257745523986
52.67209243774414         5.332828483372775
52.76004409790039         5.33422513682826
52.84799575805664         5.334085524321126
52.93594741821289         5.332625546468518
53.02389907836914         5.3341261758452845
53.11185073852539         5.334068758831804
53.19980239868164         5.332810765967435
53.28775405883789         5.333159929367543
53.37570571899414         5.334225195452671
53.46365737915039         5.333080048045239
53.55160903930664         5.333123875742535
53.63956069946289         5.334253058760213
53.72751235961914         5.332997721991189
53.81546401977539         5.332605676324676
53.90341567993164         5.334039119620565
53.99136734008789         5.333886693327383
54.07931900024414         5.332374400757408
54.16727066040039         5.3338764450873235
54.25522232055664         5.333824060671513
54.34317398071289         5.332254291935429
54.43112564086914         5.333740872526695
54.51907730102539         5.33391257620518
54.60702896118164         5.332543573461236
54.69498062133789         5.332875731040503
54.78293228149414         5.333981793097493
54.87088394165039         5.332710984763393
54.95883560180664         5.332375589360441
55.04678726196289         5.333809379898224
55.13473892211914         5.333644044145297
55.22269058227539         5.332127329112923
55.31064224243164         5.333661763379967
55.39859390258789         5.333585731130918
55.48654556274414         5.331987643558337
55.57449722290039         5.333447007835922
55.66244888305664         5.333644711687982
55.75040054321289         5.33229838176881
55.83835220336914         5.3326241392054134
55.92630386352539         5.333655050429045
56.01425552368164         5.332570928594745
56.10220718383789         5.332531586062496
56.19015884399414         5.333704527029469
56.27811050415039         5.332437589995103
56.36606216430664         5.3320331046867775
56.45401382446289         5.33334483036811
56.54196548461914         5.333409410712055
56.62991714477539         5.3317069073002745
56.71786880493164         5.333172742827531
56.80582046508789         5.3334094020064535
56.89377212524414         5.3320912636881115
56.98172378540039         5.332324066326367
57.06967544555664         5.3333599773998435
57.15762710571289         5.332334975921625
57.24557876586914         5.332328487464838
57.33353042602539         5.333467755512938
57.42148208618164         5.332206081629159
57.50943374633789         5.3318283478715465
57.59738540649414         5.3331371997885215
57.68533706665039         5.333151793434966
57.77328872680664         5.331419701936362
57.86124038696289         5.332932792179055
57.94919204711914         5.333185209015556
58.03714370727539         5.331849447729789
58.12509536743164         5.332078239104836
58.21304702758789         5.333128323901573
58.30099868774414         5.332106955067515
58.38895034790039         5.332067742102691
58.47690200805664         5.333157918670969
58.56485366821289         5.331927988738258
58.65280532836914         5.331596219939409
58.74075698852539         5.332891929422464
58.82870864868164         5.332905887982634
58.91666030883789         5.331190645061131
59.00461196899414         5.332736344660467
59.09256362915039         5.332964497993571
59.18051528930664         5.331575870803091
59.26846694946289         5.33181861780564